created by fftool

2376 atoms
1574 bonds
782 angles
5 atom types
2 bond types
1 angle types
-14.450000 14.450000 xlo xhi
-14.450000 14.450000 ylo yhi
-14.450000 14.450000 zlo zhi

Masses

   1    1.008  # Hw
   2   15.999  # Ow
   3   39.098  # K
   4   15.999  # O
   5    1.008  # H

Atoms

      1       1    1   0.000000  8.942734e+00  7.078103e+00  1.295056e+01  # Hw SPC
      2       1    2   0.000000  9.935388e+00  7.199082e+00  1.295198e+01  # Ow SPC
      3       1    1   0.000000  1.038031e+01  6.303515e+00  1.295362e+01  # Hw SPC
      4       2    1   0.000000 -1.144718e+01 -6.438965e+00 -7.563632e+00  # Hw SPC
      5       2    2   0.000000 -1.080328e+01 -5.717708e+00 -7.308319e+00  # Ow SPC
      6       2    1   0.000000 -9.894004e+00 -5.943589e+00 -7.657887e+00  # Hw SPC
      7       3    1   0.000000  1.295815e+01  6.923987e+00  5.116830e-01  # Hw SPC
      8       3    2   0.000000  1.295010e+01  6.997987e+00  1.508909e+00  # Ow SPC
      9       3    1   0.000000  1.247869e+01  7.838168e+00  1.776995e+00  # Hw SPC
     10       4    1   0.000000  8.959610e-01 -1.024804e+01 -1.295180e+01  # Hw SPC
     11       4    2   0.000000  2.683230e-01 -9.724046e+00 -1.237604e+01  # Ow SPC
     12       4    1   0.000000 -3.975790e-01 -9.251357e+00 -1.295322e+01  # Hw SPC
     13       5    1   0.000000  1.205960e-01  1.295055e+01 -3.707245e+00  # Hw SPC
     14       5    2   0.000000  1.030520e+00  1.271986e+01 -3.362544e+00  # Ow SPC
     15       5    1   0.000000  1.716605e+00  1.294984e+01 -4.052759e+00  # Hw SPC
     16       6    1   0.000000 -6.576310e-01 -1.291649e+01  1.061485e+00  # Hw SPC
     17       6    2   0.000000  2.619040e-01 -1.293660e+01  6.689900e-01  # Ow SPC
     18       6    1   0.000000  6.074360e-01 -1.200229e+01  5.814270e-01  # Hw SPC
     19       7    1   0.000000 -1.295018e+01  8.881102e+00 -8.967350e+00  # Hw SPC
     20       7    2   0.000000 -1.283871e+01  8.734257e+00 -9.950210e+00  # Ow SPC
     21       7    1   0.000000 -1.295018e+01  7.762189e+00 -1.015675e+01  # Hw SPC
     22       8    1   0.000000 -6.082961e+00  3.894842e+00  1.273674e+01  # Hw SPC
     23       8    2   0.000000 -5.860104e+00  4.751879e+00  1.227218e+01  # Ow SPC
     24       8    1   0.000000 -5.646335e+00  5.453602e+00  1.295180e+01  # Hw SPC
     25       9    1   0.000000  4.657926e+00  7.269498e+00 -1.220989e+01  # Hw SPC
     26       9    2   0.000000  5.336808e+00  7.383761e+00 -1.293519e+01  # Ow SPC
     27       9    1   0.000000  5.650381e+00  8.333182e+00 -1.295166e+01  # Hw SPC
     28      10    1   0.000000  1.295000e+01  4.643183e+00  2.348253e+00  # Hw SPC
     29      10    2   0.000000  1.266860e+01  3.683607e+00  2.342828e+00  # Ow SPC
     30      10    1   0.000000  1.285731e+01  3.285991e+00  1.444891e+00  # Hw SPC
     31      11    1   0.000000  1.007283e+01 -3.395000e+00  1.712204e+00  # Hw SPC
     32      11    2   0.000000  9.658386e+00 -3.360410e+00  2.621621e+00  # Ow SPC
     33      11    1   0.000000  1.017006e+01 -2.722387e+00  3.197048e+00  # Hw SPC
     34      12    1   0.000000 -2.569086e+00  6.705540e-01 -1.295582e+01  # Hw SPC
     35      12    2   0.000000 -3.542529e+00  5.927780e-01 -1.274051e+01  # Ow SPC
     36      12    1   0.000000 -3.908595e+00  1.497065e+00 -1.252083e+01  # Hw SPC
     37      13    1   0.000000  1.295221e+01  9.833084e+00  3.206893e+00  # Hw SPC
     38      13    2   0.000000  1.195781e+01  9.938140e+00  3.195381e+00  # Ow SPC
     39      13    1   0.000000  1.153567e+01  9.167434e+00  3.672676e+00  # Hw SPC
     40      14    1   0.000000  1.585564e+00  6.441392e+00 -5.267531e+00  # Hw SPC
     41      14    2   0.000000  6.527990e-01  6.753980e+00 -5.447078e+00  # Ow SPC
     42      14    1   0.000000  6.363510e-01  7.753362e+00 -5.478134e+00  # Hw SPC
     43      15    1   0.000000  9.231660e-01  1.501325e+00  3.109851e+00  # Hw SPC
     44      15    2   0.000000  1.709191e+00  2.051417e+00  3.391920e+00  # Ow SPC
     45      15    1   0.000000  2.068430e+00  1.700588e+00  4.256713e+00  # Hw SPC
     46      16    1   0.000000 -9.549606e+00 -8.460783e+00  1.132254e+01  # Hw SPC
     47      16    2   0.000000 -9.176725e+00 -8.858417e+00  1.216090e+01  # Ow SPC
     48      16    1   0.000000 -9.516581e+00 -8.348812e+00  1.295134e+01  # Hw SPC
     49      17    1   0.000000 -8.497391e+00  1.453271e+00  5.604579e+00  # Hw SPC
     50      17    2   0.000000 -8.742190e+00  1.238566e+00  4.659076e+00  # Ow SPC
     51      17    1   0.000000 -8.065767e+00  6.107470e-01  4.273985e+00  # Hw SPC
     52      18    1   0.000000  4.971080e+00 -6.557600e+00  5.049702e+00  # Hw SPC
     53      18    2   0.000000  5.718168e+00 -7.189072e+00  5.257317e+00  # Ow SPC
     54      18    1   0.000000  5.754327e+00 -7.349844e+00  6.243645e+00  # Hw SPC
     55      19    1   0.000000 -5.381307e+00  3.508794e+00 -6.850736e+00  # Hw SPC
     56      19    2   0.000000 -6.042846e+00  2.759289e+00 -6.826034e+00  # Ow SPC
     57      19    1   0.000000 -5.556445e+00  1.885621e+00 -6.815184e+00  # Hw SPC
     58      20    1   0.000000 -3.170299e+00 -1.981027e+00  1.294729e+01  # Hw SPC
     59      20    2   0.000000 -2.565397e+00 -1.364093e+00  1.244382e+01  # Ow SPC
     60      20    1   0.000000 -2.464818e+00 -5.083070e-01  1.295128e+01  # Hw SPC
     61      21    1   0.000000 -1.264541e+01 -6.355481e+00  1.295117e+01  # Hw SPC
     62      21    2   0.000000 -1.230618e+01 -6.478143e+00  1.201850e+01  # Ow SPC
     63      21    1   0.000000 -1.148142e+01 -7.043367e+00  1.203545e+01  # Hw SPC
     64      22    1   0.000000 -1.197812e+01 -3.749888e+00 -6.128143e+00  # Hw SPC
     65      22    2   0.000000 -1.280828e+01 -3.630679e+00 -6.672767e+00  # Ow SPC
     66      22    1   0.000000 -1.295005e+01 -4.438129e+00 -7.245415e+00  # Hw SPC
     67      23    1   0.000000 -6.595040e+00 -1.082817e+00 -1.295038e+01  # Hw SPC
     68      23    2   0.000000 -5.670115e+00 -7.026690e-01 -1.295179e+01  # Ow SPC
     69      23    1   0.000000 -5.003417e+00 -1.447995e+00 -1.295297e+01  # Hw SPC
     70      24    1   0.000000  1.295121e+01 -1.273054e+01  9.618462e+00  # Hw SPC
     71      24    2   0.000000  1.294977e+01 -1.174288e+01  9.461831e+00  # Ow SPC
     72      24    1   0.000000  1.295047e+01 -1.126601e+01  1.034080e+01  # Hw SPC
     73      25    1   0.000000 -1.294476e+01 -3.678877e+00 -3.484231e+00  # Hw SPC
     74      25    2   0.000000 -1.237038e+01 -2.860288e+00 -3.484572e+00  # Ow SPC
     75      25    1   0.000000 -1.295000e+01 -2.046390e+00 -3.444423e+00  # Hw SPC
     76      26    1   0.000000 -9.151293e+00 -1.254077e+01 -4.952432e+00  # Hw SPC
     77      26    2   0.000000 -8.395167e+00 -1.195736e+01 -5.248940e+00  # Ow SPC
     78      26    1   0.000000 -8.623512e+00 -1.100004e+01 -5.071770e+00  # Hw SPC
     79      27    1   0.000000  1.103751e+01  6.248075e+00 -1.295100e+01  # Hw SPC
     80      27    2   0.000000  1.010275e+01  5.901292e+00 -1.287379e+01  # Ow SPC
     81      27    1   0.000000  1.012157e+01  4.903466e+00 -1.281063e+01  # Hw SPC
     82      28    1   0.000000  1.095091e+00 -8.009835e+00 -1.409110e-01  # Hw SPC
     83      28    2   0.000000  1.709591e+00 -8.798149e+00 -1.100800e-01  # Ow SPC
     84      28    1   0.000000  1.172478e+00 -9.635758e+00 -1.047900e-02  # Hw SPC
     85      29    1   0.000000 -3.743414e+00 -2.926930e+00 -4.624944e+00  # Hw SPC
     86      29    2   0.000000 -4.356582e+00 -2.138078e+00 -4.583259e+00  # Ow SPC
     87      29    1   0.000000 -3.845250e+00 -1.306613e+00 -4.800526e+00  # Hw SPC
     88      30    1   0.000000  6.704612e+00 -1.295579e+01  9.975150e+00  # Hw SPC
     89      30    2   0.000000  6.357422e+00 -1.237673e+01  1.071281e+01  # Ow SPC
     90      30    1   0.000000  5.985712e+00 -1.295209e+01  1.144137e+01  # Hw SPC
     91      31    1   0.000000 -1.077610e+01 -4.555890e+00  2.718511e+00  # Hw SPC
     92      31    2   0.000000 -1.035236e+01 -4.274721e+00  3.579553e+00  # Ow SPC
     93      31    1   0.000000 -1.071049e+01 -3.381438e+00  3.851200e+00  # Hw SPC
     94      32    1   0.000000  8.322254e+00  5.095109e+00  3.249122e+00  # Hw SPC
     95      32    2   0.000000  8.524410e+00  5.076980e+00  2.269937e+00  # Ow SPC
     96      32    1   0.000000  8.456762e+00  6.002942e+00  1.898429e+00  # Hw SPC
     97      33    1   0.000000 -8.526392e+00  5.369670e-01  8.423657e+00  # Hw SPC
     98      33    2   0.000000 -7.874288e+00  1.171784e+00  8.009208e+00  # Ow SPC
     99      33    1   0.000000 -6.942160e+00  8.668690e-01  8.204565e+00  # Hw SPC
    100      34    1   0.000000 -1.094029e+01  1.079943e+00 -7.391697e+00  # Hw SPC
    101      34    2   0.000000 -1.081740e+01  9.090600e-02 -7.473563e+00  # Ow SPC
    102      34    1   0.000000 -1.016081e+01 -2.213490e-01 -6.786987e+00  # Hw SPC
    103      35    1   0.000000 -9.432386e+00 -1.295092e+01  2.899437e+00  # Hw SPC
    104      35    2   0.000000 -9.787943e+00 -1.295079e+01  3.834092e+00  # Ow SPC
    105      35    1   0.000000 -9.910258e+00 -1.200793e+01  4.144040e+00  # Hw SPC
    106      36    1   0.000000  3.915908e+00 -1.997661e+00  2.044771e+00  # Hw SPC
    107      36    2   0.000000  3.114511e+00 -2.314516e+00  2.552082e+00  # Ow SPC
    108      36    1   0.000000  2.538965e+00 -1.531759e+00  2.788805e+00  # Hw SPC
    109      37    1   0.000000 -2.762640e-01 -2.757695e+00  2.525619e+00  # Hw SPC
    110      37    2   0.000000 -5.600310e-01 -3.456262e+00  1.868747e+00  # Ow SPC
    111      37    1   0.000000 -9.869190e-01 -3.016816e+00  1.078397e+00  # Hw SPC
    112      38    1   0.000000  1.231302e+01 -4.614559e+00  9.505266e+00  # Hw SPC
    113      38    2   0.000000  1.295770e+01 -4.192795e+00  8.867694e+00  # Ow SPC
    114      38    1   0.000000  1.245437e+01 -3.652368e+00  8.193460e+00  # Hw SPC
    115      39    1   0.000000 -5.351007e+00  1.208082e+01 -6.424575e+00  # Hw SPC
    116      39    2   0.000000 -5.601175e+00  1.117688e+01 -6.771448e+00  # Ow SPC
    117      39    1   0.000000 -4.961894e+00  1.090763e+01 -7.491740e+00  # Hw SPC
    118      40    1   0.000000 -1.277822e+01  1.010165e+01 -1.209709e+01  # Hw SPC
    119      40    2   0.000000 -1.295187e+01  1.105717e+01 -1.233547e+01  # Ow SPC
    120      40    1   0.000000 -1.223406e+01  1.138294e+01 -1.295079e+01  # Hw SPC
    121      41    1   0.000000 -1.075452e+01 -1.293196e+01  9.165302e+00  # Hw SPC
    122      41    2   0.000000 -1.058738e+01 -1.295082e+01  1.015105e+01  # Ow SPC
    123      41    1   0.000000 -9.635015e+00 -1.270564e+01  1.033240e+01  # Hw SPC
    124      42    1   0.000000  7.349399e+00  7.140927e+00  5.233615e+00  # Hw SPC
    125      42    2   0.000000  6.952471e+00  6.797963e+00  6.084980e+00  # Ow SPC
    126      42    1   0.000000  6.249195e+00  7.433059e+00  6.404442e+00  # Hw SPC
    127      43    1   0.000000  6.134700e+00  3.440451e+00  1.049519e+01  # Hw SPC
    128      43    2   0.000000  6.536669e+00  4.306321e+00  1.019738e+01  # Ow SPC
    129      43    1   0.000000  7.499296e+00  4.336932e+00  1.046647e+01  # Hw SPC
    130      44    1   0.000000 -7.639957e+00 -3.364694e+00 -6.628711e+00  # Hw SPC
    131      44    2   0.000000 -8.155622e+00 -4.128094e+00 -7.017696e+00  # Ow SPC
    132      44    1   0.000000 -7.987624e+00 -4.176496e+00 -8.002294e+00  # Hw SPC
    133      45    1   0.000000  3.469887e+00  6.522394e+00  3.954129e+00  # Hw SPC
    134      45    2   0.000000  4.095934e+00  7.141418e+00  4.428338e+00  # Ow SPC
    135      45    1   0.000000  5.035948e+00  6.823037e+00  4.305832e+00  # Hw SPC
    136      46    1   0.000000  1.143296e+01  2.881334e+00 -4.786284e+00  # Hw SPC
    137      46    2   0.000000  1.180876e+01  1.986107e+00 -5.025752e+00  # Ow SPC
    138      46    1   0.000000  1.278029e+01  2.079817e+00 -5.243348e+00  # Hw SPC
    139      47    1   0.000000  1.295775e+01 -1.295174e+01 -9.697695e+00  # Hw SPC
    140      47    2   0.000000  1.263885e+01 -1.247230e+01 -1.051527e+01  # Ow SPC
    141      47    1   0.000000  1.186042e+01 -1.296283e+01 -1.090698e+01  # Hw SPC
    142      48    1   0.000000  7.763061e+00  8.978648e+00 -8.468734e+00  # Hw SPC
    143      48    2   0.000000  6.925439e+00  9.409836e+00 -8.804092e+00  # Ow SPC
    144      48    1   0.000000  7.022216e+00  1.040422e+01 -8.761184e+00  # Hw SPC
    145      49    1   0.000000 -9.897913e+00 -2.635039e+00  1.381276e+00  # Hw SPC
    146      49    2   0.000000 -9.129172e+00 -3.161992e+00  1.018843e+00  # Ow SPC
    147      49    1   0.000000 -9.462889e+00 -4.032393e+00  6.568570e-01  # Hw SPC
    148      50    1   0.000000 -3.605651e+00  3.190598e+00  2.611410e+00  # Hw SPC
    149      50    2   0.000000 -3.306003e+00  4.143411e+00  2.659974e+00  # Ow SPC
    150      50    1   0.000000 -4.059505e+00  4.743846e+00  2.392182e+00  # Hw SPC
    151      51    1   0.000000 -1.070939e+01  1.204261e+01 -4.994746e+00  # Hw SPC
    152      51    2   0.000000 -1.046240e+01  1.295092e+01 -4.657133e+00  # Ow SPC
    153      51    1   0.000000 -9.505243e+00  1.294996e+01 -4.367553e+00  # Hw SPC
    154      52    1   0.000000 -4.828766e+00  3.385259e+00  4.397530e-01  # Hw SPC
    155      52    2   0.000000 -5.450273e+00  4.131958e+00  2.027490e-01  # Ow SPC
    156      52    1   0.000000 -6.345283e+00  3.756805e+00 -3.853100e-02  # Hw SPC
    157      53    1   0.000000 -9.197304e+00  1.381275e+00 -1.274713e+01  # Hw SPC
    158      53    2   0.000000 -8.399188e+00  8.141180e-01 -1.295046e+01  # Ow SPC
    159      53    1   0.000000 -7.568369e+00  1.363355e+00 -1.286059e+01  # Hw SPC
    160      54    1   0.000000  1.295631e+01 -7.464609e+00  4.130730e+00  # Hw SPC
    161      54    2   0.000000  1.247599e+01 -6.655482e+00  3.792188e+00  # Ow SPC
    162      54    1   0.000000  1.295232e+01 -6.296645e+00  2.989473e+00  # Hw SPC
    163      55    1   0.000000 -7.154024e+00  4.828968e+00 -4.660984e+00  # Hw SPC
    164      55    2   0.000000 -6.191756e+00  4.557098e+00 -4.649652e+00  # Ow SPC
    165      55    1   0.000000 -6.124567e+00  3.576607e+00 -4.464932e+00  # Hw SPC
    166      56    1   0.000000 -6.115624e+00 -1.125447e+01 -6.351073e+00  # Hw SPC
    167      56    2   0.000000 -5.781427e+00 -1.206811e+01 -6.826774e+00  # Ow SPC
    168      56    1   0.000000 -6.457293e+00 -1.280100e+01 -6.748740e+00  # Hw SPC
    169      57    1   0.000000  9.490789e+00  9.883680e+00  2.425575e+00  # Hw SPC
    170      57    2   0.000000  9.493726e+00  8.901449e+00  2.237922e+00  # Ow SPC
    171      57    1   0.000000  1.011637e+01  8.708865e+00  1.479485e+00  # Hw SPC
    172      58    1   0.000000  7.057612e+00 -5.922886e+00  1.088443e+01  # Hw SPC
    173      58    2   0.000000  6.406297e+00 -6.645504e+00  1.111597e+01  # Ow SPC
    174      58    1   0.000000  5.478023e+00 -6.336291e+00  1.090934e+01  # Hw SPC
    175      59    1   0.000000  6.548899e+00  1.344968e+00  9.128193e+00  # Hw SPC
    176      59    2   0.000000  7.542324e+00  1.450566e+00  9.083969e+00  # Ow SPC
    177      59    1   0.000000  7.767960e+00  2.407245e+00  8.899976e+00  # Hw SPC
    178      60    1   0.000000  1.110791e+01 -4.417469e+00  5.572280e+00  # Hw SPC
    179      60    2   0.000000  1.121563e+01 -3.423288e+00  5.573136e+00  # Ow SPC
    180      60    1   0.000000  1.217175e+01 -3.191772e+00  5.752703e+00  # Hw SPC
    181      61    1   0.000000  8.077622e+00  1.092258e+01 -6.555507e+00  # Hw SPC
    182      61    2   0.000000  7.431793e+00  1.020828e+01 -6.285918e+00  # Ow SPC
    183      61    1   0.000000  6.504697e+00  1.058301e+01 -6.277611e+00  # Hw SPC
    184      62    1   0.000000 -2.242913e+00  3.387437e+00 -7.106823e+00  # Hw SPC
    185      62    2   0.000000 -1.453569e+00  3.098136e+00 -7.648340e+00  # Ow SPC
    186      62    1   0.000000 -9.400790e-01  3.903156e+00 -7.945443e+00  # Hw SPC
    187      63    1   0.000000 -5.618365e+00 -8.027416e+00 -1.551503e+00  # Hw SPC
    188      63    2   0.000000 -5.260787e+00 -7.584275e+00 -2.373552e+00  # Ow SPC
    189      63    1   0.000000 -4.889478e+00 -8.277539e+00 -2.991222e+00  # Hw SPC
    190      64    1   0.000000  1.900913e+00 -7.118148e+00 -1.295104e+01  # Hw SPC
    191      64    2   0.000000  2.151064e+00 -8.086355e+00 -1.295048e+01  # Ow SPC
    192      64    1   0.000000  3.147283e+00 -8.173224e+00 -1.295015e+01  # Hw SPC
    193      65    1   0.000000  1.295281e+01 -7.542486e+00 -1.821029e+00  # Hw SPC
    194      65    2   0.000000  1.252427e+01 -6.663538e+00 -2.030324e+00  # Ow SPC
    195      65    1   0.000000  1.295335e+01 -6.268546e+00 -2.842647e+00  # Hw SPC
    196      66    1   0.000000 -1.162256e+01  2.057113e+00  1.294358e+01  # Hw SPC
    197      66    2   0.000000 -1.197164e+01  1.120048e+00  1.295098e+01  # Ow SPC
    198      66    1   0.000000 -1.295057e+01  1.127413e+00  1.274694e+01  # Hw SPC
    199      67    1   0.000000 -1.518788e+00  3.405496e+00  4.244549e+00  # Hw SPC
    200      67    2   0.000000 -5.938250e-01  3.208806e+00  4.569752e+00  # Ow SPC
    201      67    1   0.000000 -5.657930e-01  2.287587e+00  4.957786e+00  # Hw SPC
    202      68    1   0.000000 -8.511902e+00 -1.066152e+01 -8.657751e+00  # Hw SPC
    203      68    2   0.000000 -7.608547e+00 -1.093863e+01 -8.330397e+00  # Ow SPC
    204      68    1   0.000000 -6.926817e+00 -1.075594e+01 -9.038823e+00  # Hw SPC
    205      69    1   0.000000  3.802080e-01  1.185585e+01 -9.734550e-01  # Hw SPC
    206      69    2   0.000000  1.251100e-01  1.282277e+01 -9.706950e-01  # Ow SPC
    207      69    1   0.000000 -7.827380e-01  1.292913e+01 -1.376280e+00  # Hw SPC
    208      70    1   0.000000  4.712722e+00 -7.775270e-01  1.106128e+01  # Hw SPC
    209      70    2   0.000000  5.149461e+00 -1.033762e+00  1.019896e+01  # Ow SPC
    210      70    1   0.000000  6.130430e+00 -8.475380e-01  1.025392e+01  # Hw SPC
    211      71    1   0.000000 -2.094027e+00  1.161972e+01  9.854230e-01  # Hw SPC
    212      71    2   0.000000 -2.406628e+00  1.256959e+01  9.914030e-01  # Ow SPC
    213      71    1   0.000000 -2.805171e+00  1.279493e+01  1.023670e-01  # Hw SPC
    214      72    1   0.000000  1.291243e+01  7.142382e+00 -9.197366e+00  # Hw SPC
    215      72    2   0.000000  1.270898e+01  6.816579e+00 -8.274078e+00  # Ow SPC
    216      72    1   0.000000  1.177820e+01  7.083298e+00 -8.024055e+00  # Hw SPC
    217      73    1   0.000000 -1.054488e+01  6.767493e+00 -4.443602e+00  # Hw SPC
    218      73    2   0.000000 -1.088568e+01  7.707370e+00 -4.421547e+00  # Ow SPC
    219      73    1   0.000000 -1.011874e+01  8.337210e+00 -4.298616e+00  # Hw SPC
    220      74    1   0.000000 -1.294998e+01 -1.295031e+01  7.897000e-02  # Hw SPC
    221      74    2   0.000000 -1.287519e+01 -1.261610e+01 -8.605570e-01  # Ow SPC
    222      74    1   0.000000 -1.295343e+01 -1.161918e+01 -8.669270e-01  # Hw SPC
    223      75    1   0.000000 -6.430689e+00 -8.924173e+00 -1.127179e+01  # Hw SPC
    224      75    2   0.000000 -7.369107e+00 -9.268723e+00 -1.129742e+01  # Ow SPC
    225      75    1   0.000000 -7.999384e+00 -8.507961e+00 -1.145232e+01  # Hw SPC
    226      76    1   0.000000  5.705762e+00 -9.528810e-01  4.846954e+00  # Hw SPC
    227      76    2   0.000000  4.998520e+00 -1.460465e+00  5.339059e+00  # Ow SPC
    228      76    1   0.000000  4.127820e+00 -1.373190e+00  4.855050e+00  # Hw SPC
    229      77    1   0.000000 -1.031606e+01 -7.744831e+00  1.539526e+00  # Hw SPC
    230      77    2   0.000000 -1.017317e+01 -6.775385e+00  1.738920e+00  # Ow SPC
    231      77    1   0.000000 -9.483754e+00 -6.680896e+00  2.457098e+00  # Hw SPC
    232      78    1   0.000000 -2.001003e+00  5.134131e+00  6.711482e+00  # Hw SPC
    233      78    2   0.000000 -1.351949e+00  4.373729e+00  6.734230e+00  # Ow SPC
    234      78    1   0.000000 -1.852202e+00  3.507967e+00  6.719986e+00  # Hw SPC
    235      79    1   0.000000 -4.683098e+00  1.294175e+01  3.960359e+00  # Hw SPC
    236      79    2   0.000000 -5.120896e+00  1.295132e+01  3.061337e+00  # Ow SPC
    237      79    1   0.000000 -4.485957e+00  1.259173e+01  2.377561e+00  # Hw SPC
    238      80    1   0.000000 -9.506981e+00  2.423736e+00 -1.026158e+01  # Hw SPC
    239      80    2   0.000000 -8.673815e+00  2.774971e+00 -1.068874e+01  # Ow SPC
    240      80    1   0.000000 -7.901287e+00  2.189037e+00 -1.044404e+01  # Hw SPC
    241      81    1   0.000000  2.016143e+00 -1.089711e+01  4.830975e+00  # Hw SPC
    242      81    2   0.000000  1.181233e+00 -1.034840e+01  4.788022e+00  # Ow SPC
    243      81    1   0.000000  1.421840e+00 -9.381420e+00  4.703993e+00  # Hw SPC
    244      82    1   0.000000  1.060156e+01  1.152333e+01  8.998920e-01  # Hw SPC
    245      82    2   0.000000  1.071606e+01  1.251341e+01  8.184370e-01  # Ow SPC
    246      82    1   0.000000  1.044134e+01  1.295223e+01  1.673989e+00  # Hw SPC
    247      83    1   0.000000 -5.446110e-01 -9.314637e+00 -4.665100e+00  # Hw SPC
    248      83    2   0.000000 -9.538600e-02 -8.436533e+00 -4.829816e+00  # Ow SPC
    249      83    1   0.000000  8.966550e-01 -8.561322e+00 -4.813069e+00  # Hw SPC
    250      84    1   0.000000 -4.290098e+00 -4.738875e+00 -2.926365e+00  # Hw SPC
    251      84    2   0.000000 -4.116102e+00 -5.340297e+00 -2.146611e+00  # Ow SPC
    252      84    1   0.000000 -3.252348e+00 -5.082924e+00 -1.713381e+00  # Hw SPC
    253      85    1   0.000000  1.516139e+00  1.074344e+00 -1.140874e+01  # Hw SPC
    254      85    2   0.000000  2.019390e+00  1.937963e+00 -1.137872e+01  # Ow SPC
    255      85    1   0.000000  1.422013e+00  2.682385e+00 -1.167701e+01  # Hw SPC
    256      86    1   0.000000 -2.203818e+00 -7.636340e-01  3.594077e+00  # Hw SPC
    257      86    2   0.000000 -2.849694e+00 -9.873100e-02  3.969243e+00  # Ow SPC
    258      86    1   0.000000 -2.348974e+00  6.029790e-01  4.476079e+00  # Hw SPC
    259      87    1   0.000000 -2.971914e+00  1.274324e+00  6.802224e+00  # Hw SPC
    260      87    2   0.000000 -3.790937e+00  1.537062e+00  7.312292e+00  # Ow SPC
    261      87    1   0.000000 -4.603928e+00  1.321341e+00  6.771450e+00  # Hw SPC
    262      88    1   0.000000 -9.836274e+00  1.075430e+01  2.287110e-01  # Hw SPC
    263      88    2   0.000000 -1.043617e+01  1.012566e+01  7.236210e-01  # Ow SPC
    264      88    1   0.000000 -1.001741e+01  9.885236e+00  1.599311e+00  # Hw SPC
    265      89    1   0.000000 -8.572332e+00 -7.778330e+00 -5.045540e-01  # Hw SPC
    266      89    2   0.000000 -8.205760e+00 -7.281326e+00  2.819650e-01  # Ow SPC
    267      89    1   0.000000 -7.330056e+00 -7.682291e+00  5.509810e-01  # Hw SPC
    268      90    1   0.000000  8.289630e+00 -7.800439e+00 -2.752155e+00  # Hw SPC
    269      90    2   0.000000  8.027053e+00 -7.849149e+00 -1.788474e+00  # Ow SPC
    270      90    1   0.000000  7.432297e+00 -7.076751e+00 -1.565612e+00  # Hw SPC
    271      91    1   0.000000 -1.068056e+01  1.295054e+01 -7.490050e+00  # Hw SPC
    272      91    2   0.000000 -1.037112e+01  1.250411e+01 -8.329662e+00  # Ow SPC
    273      91    1   0.000000 -1.079021e+01  1.295218e+01 -9.119345e+00  # Hw SPC
    274      92    1   0.000000  1.276420e-01  5.820840e-01  1.295050e+01  # Hw SPC
    275      92    2   0.000000  1.777710e-01 -4.160780e-01  1.291645e+01  # Ow SPC
    276      92    1   0.000000 -1.526770e-01 -7.363100e-01  1.202861e+01  # Hw SPC
    277      93    1   0.000000  3.431456e+00  6.023930e-01 -1.295081e+01  # Hw SPC
    278      93    2   0.000000  4.305607e+00  1.167410e-01 -1.295213e+01  # Ow SPC
    279      93    1   0.000000  4.139129e+00 -8.692580e-01 -1.294271e+01  # Hw SPC
    280      94    1   0.000000  1.268220e+00 -7.427982e+00  6.277015e+00  # Hw SPC
    281      94    2   0.000000  3.508770e-01 -7.042391e+00  6.178008e+00  # Ow SPC
    282      94    1   0.000000 -3.115990e-01 -7.782958e+00  6.065375e+00  # Hw SPC
    283      95    1   0.000000 -8.645360e+00 -1.273631e+01  1.262775e+01  # Hw SPC
    284      95    2   0.000000 -9.144599e+00 -1.193211e+01  1.295030e+01  # Ow SPC
    285      95    1   0.000000 -8.533962e+00 -1.114021e+01  1.295442e+01  # Hw SPC
    286      96    1   0.000000  5.677814e+00 -3.044444e+00  3.476177e+00  # Hw SPC
    287      96    2   0.000000  4.929430e+00 -3.701320e+00  3.568024e+00  # Ow SPC
    288      96    1   0.000000  4.696374e+00 -3.808066e+00  4.534611e+00  # Hw SPC
    289      97    1   0.000000  3.863263e+00 -8.739860e+00  1.295011e+01  # Hw SPC
    290      97    2   0.000000  4.500392e+00 -7.969103e+00  1.295076e+01  # Ow SPC
    291      97    1   0.000000  3.986073e+00 -7.111505e+00  1.295115e+01  # Hw SPC
    292      98    1   0.000000  4.291275e+00 -4.565293e+00 -8.852865e+00  # Hw SPC
    293      98    2   0.000000  4.035360e+00 -4.932917e+00 -7.958796e+00  # Ow SPC
    294      98    1   0.000000  3.117917e+00 -4.615981e+00 -7.718279e+00  # Hw SPC
    295      99    1   0.000000 -4.364630e-01 -6.233592e+00 -1.288939e+01  # Hw SPC
    296      99    2   0.000000 -1.354370e+00 -5.837719e+00 -1.291642e+01  # Ow SPC
    297      99    1   0.000000 -2.032871e+00 -6.571438e+00 -1.295236e+01  # Hw SPC
    298     100    1   0.000000 -6.064763e+00 -6.998620e-01 -1.048320e+01  # Hw SPC
    299     100    2   0.000000 -6.418781e+00  1.984760e-01 -1.074331e+01  # Ow SPC
    300     100    1   0.000000 -5.757557e+00  9.039540e-01 -1.048820e+01  # Hw SPC
    301     101    1   0.000000 -4.658584e+00 -9.601012e+00 -5.158790e+00  # Hw SPC
    302     101    2   0.000000 -3.878048e+00 -8.979741e+00 -5.227971e+00  # Ow SPC
    303     101    1   0.000000 -3.029297e+00 -9.497732e+00 -5.121641e+00  # Hw SPC
    304     102    1   0.000000 -1.295194e+01  5.907277e+00 -1.295007e+01  # Hw SPC
    305     102    2   0.000000 -1.198728e+01  6.164079e+00 -1.289100e+01  # Ow SPC
    306     102    1   0.000000 -1.172108e+01  6.241014e+00 -1.193016e+01  # Hw SPC
    307     103    1   0.000000 -3.068730e+00  1.295720e+00  9.964045e+00  # Hw SPC
    308     103    2   0.000000 -2.302074e+00  1.584715e+00  1.053739e+01  # Ow SPC
    309     103    1   0.000000 -1.836299e+00  7.785440e-01  1.090227e+01  # Hw SPC
    310     104    1   0.000000 -3.272100e+00  1.053384e+01 -9.884285e+00  # Hw SPC
    311     104    2   0.000000 -2.424116e+00  1.055738e+01 -9.354786e+00  # Ow SPC
    312     104    1   0.000000 -2.639807e+00  1.067056e+01 -8.384906e+00  # Hw SPC
    313     105    1   0.000000  3.545124e+00  1.295330e+01  1.210536e+01  # Hw SPC
    314     105    2   0.000000  2.610255e+00  1.295040e+01  1.246034e+01  # Ow SPC
    315     105    1   0.000000  2.442978e+00  1.209570e+01  1.295179e+01  # Hw SPC
    316     106    1   0.000000  1.295431e+01 -1.142006e+01 -3.967815e+00  # Hw SPC
    317     106    2   0.000000  1.231616e+01 -1.065275e+01 -3.904615e+00  # Ow SPC
    318     106    1   0.000000  1.279426e+01 -9.802565e+00 -4.125065e+00  # Hw SPC
    319     107    1   0.000000  4.195809e+00  1.053970e+01  1.208253e+01  # Hw SPC
    320     107    2   0.000000  4.528831e+00  1.017436e+01  1.295179e+01  # Ow SPC
    321     107    1   0.000000  5.517303e+00  1.003315e+01  1.289719e+01  # Hw SPC
    322     108    1   0.000000  1.037772e+01 -8.703788e+00 -5.658076e+00  # Hw SPC
    323     108    2   0.000000  1.054262e+01 -9.639236e+00 -5.345429e+00  # Ow SPC
    324     108    1   0.000000  9.673570e+00 -1.006393e+01 -5.091673e+00  # Hw SPC
    325     109    1   0.000000 -9.951987e+00  2.130001e+00  6.975640e-01  # Hw SPC
    326     109    2   0.000000 -9.051923e+00  1.717616e+00  5.567660e-01  # Ow SPC
    327     109    1   0.000000 -8.437138e+00  2.391235e+00  1.465510e-01  # Hw SPC
    328     110    1   0.000000  1.198487e+01  9.607991e+00  8.304400e-02  # Hw SPC
    329     110    2   0.000000  1.293138e+01  9.899390e+00  2.215860e-01  # Ow SPC
    330     110    1   0.000000  1.295246e+01  1.067457e+01  8.529790e-01  # Hw SPC
    331     111    1   0.000000 -7.781692e+00  9.570980e+00  7.908308e+00  # Hw SPC
    332     111    2   0.000000 -7.750796e+00  8.571469e+00  7.912999e+00  # Ow SPC
    333     111    1   0.000000 -6.801972e+00  8.266929e+00  7.829400e+00  # Hw SPC
    334     112    1   0.000000  4.562448e+00  5.388342e+00 -9.915736e+00  # Hw SPC
    335     112    2   0.000000  5.053238e+00  4.521725e+00 -9.825735e+00  # Ow SPC
    336     112    1   0.000000  5.889340e+00  4.665597e+00 -9.296363e+00  # Hw SPC
    337     113    1   0.000000  3.022898e+00 -2.594751e+00  1.136394e+01  # Hw SPC
    338     113    2   0.000000  3.412436e+00 -2.758398e+00  1.227030e+01  # Ow SPC
    339     113    1   0.000000  2.680995e+00 -2.759560e+00  1.295220e+01  # Hw SPC
    340     114    1   0.000000 -1.139169e+01 -9.010844e+00  7.655171e+00  # Hw SPC
    341     114    2   0.000000 -1.200142e+01 -9.800229e+00  7.726541e+00  # Ow SPC
    342     114    1   0.000000 -1.295009e+01 -9.486254e+00  7.764726e+00  # Hw SPC
    343     115    1   0.000000  1.036625e+01  2.380651e+00  8.899978e+00  # Hw SPC
    344     115    2   0.000000  1.051394e+01  3.260670e+00  9.351369e+00  # Ow SPC
    345     115    1   0.000000  9.883301e+00  3.938824e+00  8.974015e+00  # Hw SPC
    346     116    1   0.000000  1.991684e+00 -1.132800e+01  8.698888e+00  # Hw SPC
    347     116    2   0.000000  1.951498e+00 -1.216532e+01  9.244130e+00  # Ow SPC
    348     116    1   0.000000  2.110522e+00 -1.295600e+01  8.652923e+00  # Hw SPC
    349     117    1   0.000000 -2.147380e+00 -1.048762e+01 -3.000256e+00  # Hw SPC
    350     117    2   0.000000 -2.939877e+00 -9.987031e+00 -2.651883e+00  # Ow SPC
    351     117    1   0.000000 -3.772234e+00 -1.050876e+01 -2.838920e+00  # Hw SPC
    352     118    1   0.000000  9.151591e+00  1.979653e+00 -1.288944e+01  # Hw SPC
    353     118    2   0.000000  8.365052e+00  1.362542e+00 -1.291249e+01  # Ow SPC