created by fftool

2376 atoms
1574 bonds
782 angles
5 atom types
2 bond types
1 angle types
-14.450000 14.450000 xlo xhi
-14.450000 14.450000 ylo yhi
-14.450000 14.450000 zlo zhi

Masses

   1    1.008  # Hw
   2   15.999  # Ow
   3   22.990  # Na
   4   15.999  # O
   5    1.008  # H

Atoms

      1       1    1   0.000000  8.845306e+00  7.060074e+00  1.282872e+01  # Hw SPC
      2       1    2   0.000000  9.805959e+00  7.334473e+00  1.287175e+01  # Ow SPC
      3       1    1   0.000000  1.038239e+01  6.520268e+00  1.294103e+01  # Hw SPC
      4       2    1   0.000000 -1.052668e+01 -7.734386e+00 -7.726251e+00  # Hw SPC
      5       2    2   0.000000 -1.070472e+01 -7.050334e+00 -7.018880e+00  # Ow SPC
      6       2    1   0.000000 -1.082272e+01 -6.153314e+00 -7.444828e+00  # Hw SPC
      7       3    1   0.000000  1.290553e+01  6.661570e+00 -7.061690e-01  # Hw SPC
      8       3    2   0.000000  1.295027e+01  6.474156e+00  2.750920e-01  # Ow SPC
      9       3    1   0.000000  1.229900e+01  7.060750e+00  7.565020e-01  # Hw SPC
     10       4    1   0.000000 -4.723900e-02 -1.050939e+01 -1.295010e+01  # Hw SPC
     11       4    2   0.000000 -5.872610e-01 -9.886767e+00 -1.238378e+01  # Ow SPC
     12       4    1   0.000000 -1.275192e+00 -9.432934e+00 -1.295016e+01  # Hw SPC
     13       5    1   0.000000  3.604140e-01  1.295006e+01 -4.165892e+00  # Hw SPC
     14       5    2   0.000000  1.210099e+00  1.281773e+01 -3.655475e+00  # Ow SPC
     15       5    1   0.000000  1.983774e+00  1.282292e+01 -4.289037e+00  # Hw SPC
     16       6    1   0.000000  1.735406e+00 -6.560309e+00 -6.520496e+00  # Hw SPC
     17       6    2   0.000000  1.008766e+00 -6.947236e+00 -7.088195e+00  # Ow SPC
     18       6    1   0.000000  1.412553e+00 -7.403841e+00 -7.880954e+00  # Hw SPC
     19       7    1   0.000000 -1.268464e+01  9.936453e+00 -8.825185e+00  # Hw SPC
     20       7    2   0.000000 -1.295049e+01  9.251537e+00 -9.503577e+00  # Ow SPC
     21       7    1   0.000000 -1.280647e+01  8.336293e+00 -9.127297e+00  # Hw SPC
     22       8    1   0.000000 -9.700097e+00  2.173630e+00  1.035809e+01  # Hw SPC
     23       8    2   0.000000 -8.860989e+00  1.883525e+00  9.897940e+00  # Ow SPC
     24       8    1   0.000000 -8.192781e+00  1.585852e+00  1.057977e+01  # Hw SPC
     25       9    1   0.000000  4.827673e+00  8.097637e+00 -1.295114e+01  # Hw SPC
     26       9    2   0.000000  5.230164e+00  9.013061e+00 -1.295114e+01  # Ow SPC
     27       9    1   0.000000  4.501244e+00  9.697658e+00 -1.294947e+01  # Hw SPC
     28      10    1   0.000000  1.294656e+01  4.155125e+00  1.879426e+00  # Hw SPC
     29      10    2   0.000000  1.271578e+01  3.184848e+00  1.952238e+00  # Ow SPC
     30      10    1   0.000000  1.294951e+01  2.721582e+00  1.097396e+00  # Hw SPC
     31      11    1   0.000000  9.300534e+00 -5.148689e+00  6.339030e-01  # Hw SPC
     32      11    2   0.000000  1.011099e+01 -4.575073e+00  7.527740e-01  # Ow SPC
     33      11    1   0.000000  9.840112e+00 -3.612476e+00  7.585250e-01  # Hw SPC
     34      12    1   0.000000 -6.278504e+00 -5.403217e+00 -8.807880e+00  # Hw SPC
     35      12    2   0.000000 -6.432517e+00 -4.427514e+00 -8.652048e+00  # Ow SPC
     36      12    1   0.000000 -6.595821e+00 -4.267152e+00 -7.678592e+00  # Hw SPC
     37      13    1   0.000000  1.295182e+01  8.712834e+00  2.515564e+00  # Hw SPC
     38      13    2   0.000000  1.252146e+01  9.507119e+00  2.944401e+00  # Ow SPC
     39      13    1   0.000000  1.168255e+01  9.221932e+00  3.407974e+00  # Hw SPC
     40      14    1   0.000000 -5.683344e+00 -6.788745e+00 -3.562732e+00  # Hw SPC
     41      14    2   0.000000 -6.337480e+00 -7.530400e+00 -3.711242e+00  # Ow SPC
     42      14    1   0.000000 -7.267476e+00 -7.163306e+00 -3.692566e+00  # Hw SPC
     43      15    1   0.000000  2.208580e+00 -2.223131e+00  5.224422e+00  # Hw SPC
     44      15    2   0.000000  1.319645e+00 -1.774465e+00  5.316578e+00  # Ow SPC
     45      15    1   0.000000  5.917040e-01 -2.439838e+00  5.151109e+00  # Hw SPC
     46      16    1   0.000000 -1.000506e+01 -8.473788e+00  1.182997e+01  # Hw SPC
     47      16    2   0.000000 -9.234023e+00 -8.385161e+00  1.246056e+01  # Ow SPC
     48      16    1   0.000000 -9.302010e+00 -7.515822e+00  1.295008e+01  # Hw SPC
     49      17    1   0.000000  5.202199e+00 -1.171688e+01  7.636504e+00  # Hw SPC
     50      17    2   0.000000  4.880074e+00 -1.259175e+01  7.998222e+00  # Ow SPC
     51      17    1   0.000000  4.156298e+00 -1.295007e+01  7.408510e+00  # Hw SPC
     52      18    1   0.000000 -1.295007e+01  7.272255e+00  1.294448e+01  # Hw SPC
     53      18    2   0.000000 -1.295012e+01  8.272239e+00  1.295007e+01  # Ow SPC
     54      18    1   0.000000 -1.200733e+01  8.605618e+00  1.294743e+01  # Hw SPC
     55      19    1   0.000000 -4.879122e+00 -6.381020e-01 -1.596290e-01  # Hw SPC
     56      19    2   0.000000 -5.645240e+00 -1.279591e+00 -1.990730e-01  # Ow SPC
     57      19    1   0.000000 -5.294711e+00 -2.215109e+00 -2.430620e-01  # Hw SPC
     58      20    1   0.000000 -1.304073e+00 -4.474970e+00  1.261899e+01  # Hw SPC
     59      20    2   0.000000 -1.327463e+00 -3.477560e+00  1.255098e+01  # Ow SPC
     60      20    1   0.000000 -1.810782e+00 -3.211591e+00  1.171692e+01  # Hw SPC
     61      21    1   0.000000 -8.761808e+00 -2.634261e+00  7.538467e+00  # Hw SPC
     62      21    2   0.000000 -8.242999e+00 -3.437336e+00  7.245366e+00  # Ow SPC
     63      21    1   0.000000 -8.824835e+00 -4.248710e+00  7.301384e+00  # Hw SPC
     64      22    1   0.000000 -1.175331e+01 -4.019502e+00 -6.533642e+00  # Hw SPC
     65      22    2   0.000000 -1.274334e+01 -4.156409e+00 -6.500781e+00  # Ow SPC
     66      22    1   0.000000 -1.294998e+01 -5.126796e+00 -6.625886e+00  # Hw SPC
     67      23    1   0.000000 -7.072777e+00 -1.222685e+01 -8.645891e+00  # Hw SPC
     68      23    2   0.000000 -7.214580e+00 -1.126074e+01 -8.430200e+00  # Ow SPC
     69      23    1   0.000000 -8.183204e+00 -1.103479e+01 -8.533722e+00  # Hw SPC
     70      24    1   0.000000  1.234745e+01 -1.295109e+01  1.023413e+01  # Hw SPC
     71      24    2   0.000000  1.289985e+01 -1.232925e+01  9.678994e+00  # Ow SPC
     72      24    1   0.000000  1.295246e+01 -1.143794e+01  1.012933e+01  # Hw SPC
     73      25    1   0.000000 -1.052149e+01 -4.067478e+00 -2.850102e+00  # Hw SPC
     74      25    2   0.000000 -1.081335e+01 -3.183820e+00 -3.216114e+00  # Ow SPC
     75      25    1   0.000000 -1.132059e+01 -3.326212e+00 -4.066076e+00  # Hw SPC
     76      26    1   0.000000 -1.037796e+01 -8.470712e+00 -2.185413e+00  # Hw SPC
     77      26    2   0.000000 -9.906636e+00 -7.852854e+00 -2.814784e+00  # Ow SPC
     78      26    1   0.000000 -1.024171e+01 -6.920370e+00 -2.679886e+00  # Hw SPC
     79      27    1   0.000000  1.024346e+01  4.445435e+00 -1.295066e+01  # Hw SPC
     80      27    2   0.000000  9.608774e+00  5.149323e+00 -1.263172e+01  # Ow SPC
     81      27    1   0.000000  1.005254e+01  6.044238e+00 -1.267862e+01  # Hw SPC
     82      28    1   0.000000  2.260373e+00 -7.202591e+00 -4.831130e-01  # Hw SPC
     83      28    2   0.000000  1.457549e+00 -7.598269e+00 -9.291100e-01  # Ow SPC
     84      28    1   0.000000  6.861960e-01 -7.592906e+00 -2.927250e-01  # Hw SPC
     85      29    1   0.000000 -1.671090e+00  1.015160e+00 -1.190485e+00  # Hw SPC
     86      29    2   0.000000 -8.480090e-01  7.530780e-01 -6.866480e-01  # Ow SPC
     87      29    1   0.000000 -3.897600e-02  9.788060e-01 -1.229338e+00  # Hw SPC
     88      30    1   0.000000  8.289463e+00 -1.295192e+01  1.124342e+01  # Hw SPC
     89      30    2   0.000000  7.686184e+00 -1.258216e+01  1.195005e+01  # Ow SPC
     90      30    1   0.000000  7.951827e+00 -1.295017e+01  1.284111e+01  # Hw SPC
     91      31    1   0.000000 -5.689734e+00 -3.788915e+00  3.202253e+00  # Hw SPC
     92      31    2   0.000000 -5.331443e+00 -4.292407e+00  3.988461e+00  # Ow SPC
     93      31    1   0.000000 -4.363728e+00 -4.072752e+00  4.112072e+00  # Hw SPC
     94      32    1   0.000000 -1.295007e+01 -9.578955e+00 -6.133168e+00  # Hw SPC
     95      32    2   0.000000 -1.242368e+01 -8.816927e+00 -6.510303e+00  # Ow SPC
     96      32    1   0.000000 -1.295069e+01 -7.971686e+00 -6.421801e+00  # Hw SPC
     97      33    1   0.000000 -7.583901e+00 -4.388560e-01  9.076505e+00  # Hw SPC
     98      33    2   0.000000 -7.362035e+00 -3.246580e-01  8.108139e+00  # Ow SPC
     99      33    1   0.000000 -6.453383e+00 -7.012210e-01  7.927715e+00  # Hw SPC
    100      34    1   0.000000 -1.015433e+01  7.550060e-01 -8.174158e+00  # Hw SPC
    101      34    2   0.000000 -1.029596e+01 -2.334000e-01 -8.119422e+00  # Ow SPC
    102      34    1   0.000000 -1.002693e+01 -5.589760e-01 -7.212989e+00  # Hw SPC
    103      35    1   0.000000 -9.324555e+00 -1.295035e+01  2.593246e+00  # Hw SPC
    104      35    2   0.000000 -8.909599e+00 -1.220522e+01  3.115341e+00  # Ow SPC
    105      35    1   0.000000 -9.604634e+00 -1.177388e+01  3.690555e+00  # Hw SPC
    106      36    1   0.000000 -9.882269e+00  1.295055e+01  8.239244e+00  # Hw SPC
    107      36    2   0.000000 -9.022742e+00  1.245942e+01  8.380662e+00  # Ow SPC
    108      36    1   0.000000 -8.279733e+00  1.294999e+01  7.925391e+00  # Hw SPC
    109      37    1   0.000000 -1.947133e+00 -3.366436e+00  1.941637e+00  # Hw SPC
    110      37    2   0.000000 -2.828645e+00 -3.811023e+00  1.782641e+00  # Ow SPC
    111      37    1   0.000000 -3.535212e+00 -3.114696e+00  1.656578e+00  # Hw SPC
    112      38    1   0.000000  1.295000e+01 -5.231651e+00  9.324325e+00  # Hw SPC
    113      38    2   0.000000  1.292168e+01 -4.490068e+00  8.654061e+00  # Ow SPC
    114      38    1   0.000000  1.197219e+01 -4.307649e+00  8.398734e+00  # Hw SPC
    115      39    1   0.000000 -5.615759e+00  1.208227e+01 -6.284775e+00  # Hw SPC
    116      39    2   0.000000 -5.635324e+00  1.109477e+01 -6.441169e+00  # Ow SPC
    117      39    1   0.000000 -5.184899e+00  1.088578e+01 -7.309179e+00  # Hw SPC
    118      40    1   0.000000 -1.240971e+01  1.078466e+01 -1.140259e+01  # Hw SPC
    119      40    2   0.000000 -1.296725e+01  1.045957e+01 -1.216645e+01  # Ow SPC
    120      40    1   0.000000 -1.288997e+01  1.109904e+01 -1.293137e+01  # Hw SPC
    121      41    1   0.000000 -1.295007e+01 -1.295002e+01  9.208819e+00  # Hw SPC
    122      41    2   0.000000 -1.288139e+01 -1.289491e+01  1.020494e+01  # Ow SPC
    123      41    1   0.000000 -1.196176e+01 -1.259587e+01  1.045960e+01  # Hw SPC
    124      42    1   0.000000  6.615599e+00  6.906829e+00  4.805684e+00  # Hw SPC
    125      42    2   0.000000  6.444904e+00  6.036732e+00  5.268063e+00  # Ow SPC
    126      42    1   0.000000  5.538450e+00  6.055676e+00  5.689942e+00  # Hw SPC
    127      43    1   0.000000  6.358814e+00  2.013473e+00  1.056176e+01  # Hw SPC
    128      43    2   0.000000  6.721958e+00  2.913671e+00  1.032141e+01  # Ow SPC
    129      43    1   0.000000  7.694187e+00  2.953319e+00  1.055205e+01  # Hw SPC
    130      44    1   0.000000 -6.644902e+00 -3.728144e+00 -5.237939e+00  # Hw SPC
    131      44    2   0.000000 -5.916350e+00 -4.361899e+00 -4.978001e+00  # Ow SPC
    132      44    1   0.000000 -5.162211e+00 -4.288560e+00 -5.630607e+00  # Hw SPC
    133      45    1   0.000000  4.178361e+00  5.350010e+00  3.437959e+00  # Hw SPC
    134      45    2   0.000000  4.095435e+00  6.226373e+00  2.963501e+00  # Ow SPC
    135      45    1   0.000000  4.998911e+00  6.526537e+00  2.657507e+00  # Hw SPC
    136      46    1   0.000000  1.294997e+01  4.663933e+00 -5.910249e+00  # Hw SPC
    137      46    2   0.000000  1.252273e+01  3.759838e+00 -5.919254e+00  # Ow SPC
    138      46    1   0.000000  1.295012e+01  3.196241e+00 -6.626145e+00  # Hw SPC
    139      47    1   0.000000  1.295124e+01 -1.295009e+01 -9.346643e+00  # Hw SPC
    140      47    2   0.000000  1.265624e+01 -1.242722e+01 -1.014638e+01  # Ow SPC
    141      47    1   0.000000  1.197142e+01 -1.295101e+01 -1.065301e+01  # Hw SPC
    142      48    1   0.000000  7.127115e+00  8.829337e+00 -8.770471e+00  # Hw SPC
    143      48    2   0.000000  6.249713e+00  9.293060e+00 -8.893463e+00  # Ow SPC
    144      48    1   0.000000  6.382668e+00  1.028176e+01 -8.824229e+00  # Hw SPC
    145      49    1   0.000000  2.062213e+00  1.295041e+01  7.533468e+00  # Hw SPC
    146      49    2   0.000000  1.094653e+00  1.293572e+01  7.785681e+00  # Ow SPC
    147      49    1   0.000000  1.000150e+00  1.260762e+01  8.725584e+00  # Hw SPC
    148      50    1   0.000000 -3.551489e+00  4.167077e+00  2.332451e+00  # Hw SPC
    149      50    2   0.000000 -3.863452e+00  5.077094e+00  2.605486e+00  # Ow SPC
    150      50    1   0.000000 -4.367232e+00  5.497139e+00  1.850656e+00  # Hw SPC
    151      51    1   0.000000 -1.075099e+01  1.197034e+01 -4.594535e+00  # Hw SPC
    152      51    2   0.000000 -1.065570e+01  1.270137e+01 -3.918882e+00  # Ow SPC
    153      51    1   0.000000 -9.691097e+00  1.294978e+01 -3.830375e+00  # Hw SPC
    154      52    1   0.000000 -5.019719e+00  3.459438e+00  1.284000e-01  # Hw SPC
    155      52    2   0.000000 -5.479633e+00  2.574740e+00  2.044880e-01  # Ow SPC
    156      52    1   0.000000 -4.910834e+00  1.948111e+00  7.372200e-01  # Hw SPC
    157      53    1   0.000000 -9.552909e+00  1.206039e+00 -1.285062e+01  # Hw SPC
    158      53    2   0.000000 -9.099510e+00  3.210830e-01 -1.274440e+01  # Ow SPC
    159      53    1   0.000000 -8.125760e+00  4.186460e-01 -1.295005e+01  # Hw SPC
    160      54    1   0.000000  1.295011e+01 -6.978704e+00  4.650322e+00  # Hw SPC
    161      54    2   0.000000  1.259277e+01 -6.170623e+00  4.182019e+00  # Ow SPC
    162      54    1   0.000000  1.294017e+01 -6.147792e+00  3.244580e+00  # Hw SPC
    163      55    1   0.000000 -6.557982e+00  4.182757e+00 -4.672084e+00  # Hw SPC
    164      55    2   0.000000 -5.726455e+00  3.670629e+00 -4.887226e+00  # Ow SPC
    165      55    1   0.000000 -5.933268e+00  2.971536e+00 -5.571694e+00  # Hw SPC
    166      56    1   0.000000 -6.746839e+00 -1.133344e+01 -5.925737e+00  # Hw SPC
    167      56    2   0.000000 -6.227511e+00 -1.210451e+01 -6.294187e+00  # Ow SPC
    168      56    1   0.000000 -6.527809e+00 -1.295002e+01 -5.852669e+00  # Hw SPC
    169      57    1   0.000000  9.358145e+00  9.593298e+00  1.671145e+00  # Hw SPC
    170      57    2   0.000000  9.383601e+00  8.646713e+00  1.349698e+00  # Ow SPC
    171      57    1   0.000000  1.025221e+01  8.227984e+00  1.614628e+00  # Hw SPC
    172      58    1   0.000000  8.510266e+00 -6.921244e+00  1.079378e+01  # Hw SPC
    173      58    2   0.000000  7.695775e+00 -7.498830e+00  1.073903e+01  # Ow SPC
    174      58    1   0.000000  6.924930e+00 -7.029745e+00  1.117002e+01  # Hw SPC
    175      59    1   0.000000  5.641243e+00  1.811111e+00  8.074760e+00  # Hw SPC
    176      59    2   0.000000  6.423994e+00  1.358957e+00  7.647141e+00  # Ow SPC
    177      59    1   0.000000  7.164000e+00  1.272086e+00  8.314107e+00  # Hw SPC
    178      60    1   0.000000  1.094894e+01 -5.246247e+00  5.825272e+00  # Hw SPC
    179      60    2   0.000000  1.040983e+01 -4.578443e+00  6.338497e+00  # Ow SPC
    180      60    1   0.000000  1.008686e+01 -3.863489e+00  5.718393e+00  # Hw SPC
    181      61    1   0.000000  8.046028e+00  1.031904e+01 -6.958600e+00  # Hw SPC
    182      61    2   0.000000  7.455857e+00  1.010764e+01 -6.179493e+00  # Ow SPC
    183      61    1   0.000000  6.622470e+00  1.065766e+01 -6.233723e+00  # Hw SPC
    184      62    1   0.000000 -2.967852e+00  3.449130e+00 -5.982103e+00  # Hw SPC
    185      62    2   0.000000 -2.936367e+00  3.634801e+00 -6.964211e+00  # Ow SPC
    186      62    1   0.000000 -1.984118e+00  3.724071e+00 -7.256191e+00  # Hw SPC
    187      63    1   0.000000 -1.217869e+01  2.631404e+00 -1.295031e+01  # Hw SPC
    188      63    2   0.000000 -1.295012e+01  2.789290e+00 -1.233390e+01  # Ow SPC
    189      63    1   0.000000 -1.295006e+01  2.094131e+00 -1.161504e+01  # Hw SPC
    190      64    1   0.000000  1.539590e-01 -6.757097e+00 -1.294875e+01  # Hw SPC
    191      64    2   0.000000  5.487360e-01 -7.675873e+00 -1.294967e+01  # Ow SPC
    192      64    1   0.000000  1.546558e+00 -7.609910e+00 -1.295002e+01  # Hw SPC
    193      65    1   0.000000  4.678881e+00 -1.295002e+01  4.085383e+00  # Hw SPC
    194      65    2   0.000000  4.213469e+00 -1.254687e+01  4.873333e+00  # Ow SPC
    195      65    1   0.000000  3.302940e+00 -1.295007e+01  4.964821e+00  # Hw SPC
    196      66    1   0.000000 -1.175265e+01  4.327750e-01  1.295016e+01  # Hw SPC
    197      66    2   0.000000 -1.196314e+01 -5.441440e-01  1.291380e+01  # Ow SPC
    198      66    1   0.000000 -1.295012e+01 -6.688920e-01  1.281226e+01  # Hw SPC
    199      67    1   0.000000  1.294977e+01 -1.248868e+01  6.629536e+00  # Hw SPC
    200      67    2   0.000000  1.208058e+01 -1.220077e+01  7.031560e+00  # Ow SPC
    201      67    1   0.000000  1.169944e+01 -1.295003e+01  7.573172e+00  # Hw SPC
    202      68    1   0.000000 -1.136527e+01 -7.548304e+00 -1.255373e+01  # Hw SPC
    203      68    2   0.000000 -1.214891e+01 -6.949259e+00 -1.271820e+01  # Ow SPC
    204      68    1   0.000000 -1.294969e+01 -7.503046e+00 -1.294639e+01  # Hw SPC
    205      69    1   0.000000  6.179530e-01  1.221219e+01 -1.290263e+00  # Hw SPC
    206      69    2   0.000000 -3.062970e-01  1.225451e+01 -1.669699e+00  # Ow SPC
    207      69    1   0.000000 -4.425920e-01  1.149125e+01 -2.301257e+00  # Hw SPC
    208      70    1   0.000000  5.281694e+00 -2.038440e-01  9.851452e+00  # Hw SPC
    209      70    2   0.000000  5.194003e+00 -6.697140e-01  8.970955e+00  # Ow SPC
    210      70    1   0.000000  6.054108e+00 -1.129501e+00  8.750016e+00  # Hw SPC
    211      71    1   0.000000 -7.184970e-01  1.199154e+01  8.222880e-01  # Hw SPC
    212      71    2   0.000000 -1.629058e+00  1.219446e+01  4.621480e-01  # Ow SPC
    213      71    1   0.000000 -2.000912e+00  1.137952e+01  1.762800e-02  # Hw SPC
    214      72    1   0.000000  1.295453e+01  6.577928e+00 -8.221820e+00  # Hw SPC
    215      72    2   0.000000  1.219157e+01  6.306497e+00 -7.635112e+00  # Ow SPC
    216      72    1   0.000000  1.138245e+01  6.845150e+00 -7.869990e+00  # Hw SPC
    217      73    1   0.000000 -1.048384e+01  7.643160e+00 -4.219267e+00  # Hw SPC
    218      73    2   0.000000 -1.070568e+01  8.588140e+00 -4.459685e+00  # Ow SPC
    219      73    1   0.000000 -9.971444e+00  8.970507e+00 -5.020655e+00  # Hw SPC
    220      74    1   0.000000 -1.295008e+01 -1.284576e+01 -6.285890e-01  # Hw SPC
    221      74    2   0.000000 -1.242465e+01 -1.231433e+01 -1.293047e+00  # Ow SPC
    222      74    1   0.000000 -1.295005e+01 -1.150827e+01 -1.565476e+00  # Hw SPC
    223      75    1   0.000000 -9.075524e+00 -8.684698e+00 -1.295034e+01  # Hw SPC
    224      75    2   0.000000 -8.372580e+00 -9.395943e+00 -1.294994e+01  # Ow SPC
    225      75    1   0.000000 -8.808854e+00 -1.029576e+01 -1.294991e+01  # Hw SPC
    226      76    1   0.000000  6.200318e+00 -1.045769e+00  5.731184e+00  # Hw SPC
    227      76    2   0.000000  6.137327e+00 -1.954477e+00  6.143836e+00  # Ow SPC
    228      76    1   0.000000  5.176940e+00 -2.180989e+00  6.306161e+00  # Hw SPC
    229      77    1   0.000000 -1.041691e+01 -7.721052e+00  1.452591e+00  # Hw SPC
    230      77    2   0.000000 -1.047397e+01 -6.723009e+00  1.427031e+00  # Ow SPC
    231      77    1   0.000000 -1.019987e+01 -6.350663e+00  2.313727e+00  # Hw SPC
    232      78    1   0.000000 -1.789912e+00  4.705675e+00  5.547802e+00  # Hw SPC
    233      78    2   0.000000 -1.445146e+00  3.864362e+00  5.964128e+00  # Ow SPC
    234      78    1   0.000000 -1.687490e+00  3.083765e+00  5.387989e+00  # Hw SPC
    235      79    1   0.000000 -4.660639e+00  1.055096e+01  3.123840e+00  # Hw SPC
    236      79    2   0.000000 -4.637180e+00  1.048514e+01  2.126284e+00  # Ow SPC
    237      79    1   0.000000 -4.203661e+00  1.130322e+01  1.748375e+00  # Hw SPC
    238      80    1   0.000000 -8.481565e+00  1.473375e+00 -9.914955e+00  # Hw SPC
    239      80    2   0.000000 -7.847376e+00  1.445127e+00 -1.068762e+01  # Ow SPC
    240      80    1   0.000000 -7.251976e+00  6.463700e-01 -1.060110e+01  # Hw SPC
    241      81    1   0.000000  2.564316e+00 -9.593273e+00  3.065170e+00  # Hw SPC
    242      81    2   0.000000  1.699097e+00 -9.335791e+00  3.495401e+00  # Ow SPC
    243      81    1   0.000000  1.866913e+00 -8.633714e+00  4.187444e+00  # Hw SPC
    244      82    1   0.000000  1.051658e+01  1.156887e+01  6.703250e-01  # Hw SPC
    245      82    2   0.000000  1.070267e+01  1.255080e+01  6.359490e-01  # Ow SPC
    246      82    1   0.000000  1.054708e+01  1.295135e+01  1.538919e+00  # Hw SPC
    247      83    1   0.000000 -5.117500e-02 -9.038424e+00 -3.198940e+00  # Hw SPC
    248      83    2   0.000000  9.309050e-01 -9.195724e+00 -3.095129e+00  # Ow SPC
    249      83    1   0.000000  1.435540e+00 -8.442475e+00 -3.516981e+00  # Hw SPC
    250      84    1   0.000000 -5.412882e+00 -7.560890e+00 -5.171610e-01  # Hw SPC
    251      84    2   0.000000 -5.968501e+00 -7.925362e+00  2.301320e-01  # Ow SPC
    252      84    1   0.000000 -5.384934e+00 -8.106367e+00  1.021767e+00  # Hw SPC
    253      85    1   0.000000  1.256590e+00  7.142410e-01 -1.120914e+01  # Hw SPC
    254      85    2   0.000000  1.009828e+00  1.674918e+00 -1.108183e+01  # Ow SPC
    255      85    1   0.000000  1.202550e-01  1.733340e+00 -1.062879e+01  # Hw SPC
    256      86    1   0.000000 -2.096398e+00 -2.288275e+00  4.616674e+00  # Hw SPC
    257      86    2   0.000000 -2.927724e+00 -1.766023e+00  4.426543e+00  # Ow SPC
    258      86    1   0.000000 -2.687053e+00 -9.138560e-01  3.961905e+00  # Hw SPC
    259      87    1   0.000000 -3.184716e+00  1.096897e+00  6.503554e+00  # Hw SPC
    260      87    2   0.000000 -3.557987e+00  1.912520e-01  6.302366e+00  # Ow SPC
    261      87    1   0.000000 -4.380839e+00  2.868000e-01  5.742201e+00  # Hw SPC
    262      88    1   0.000000 -1.031535e+01  1.106702e+01  7.223390e-01  # Hw SPC
    263      88    2   0.000000 -1.090404e+01  1.041640e+01  1.202061e+00  # Ow SPC
    264      88    1   0.000000 -1.038168e+01  9.591907e+00  1.419666e+00  # Hw SPC
    265      89    1   0.000000 -8.103209e+00 -6.748995e+00 -1.129241e+00  # Hw SPC
    266      89    2   0.000000 -8.753836e+00 -7.173441e+00 -4.995350e-01  # Ow SPC
    267      89    1   0.000000 -8.517791e+00 -8.137300e+00 -3.760120e-01  # Hw SPC
    268      90    1   0.000000  8.281666e+00 -7.279496e+00 -3.023426e+00  # Hw SPC
    269      90    2   0.000000  8.918077e+00 -7.950331e+00 -2.642687e+00  # Ow SPC
    270      90    1   0.000000  8.836313e+00 -7.959125e+00 -1.646074e+00  # Hw SPC
    271      91    1   0.000000 -1.295006e+01  4.126244e+00  1.295024e+01  # Hw SPC
    272      91    2   0.000000 -1.230174e+01  4.864561e+00  1.276432e+01  # Ow SPC
    273      91    1   0.000000 -1.136940e+01  4.534488e+00  1.291193e+01  # Hw SPC
    274      92    1   0.000000 -2.053000e-02  6.305290e-01  1.281201e+01  # Hw SPC
    275      92    2   0.000000  4.537600e-02 -3.633200e-01  1.290100e+01  # Ow SPC
    276      92    1   0.000000 -2.167200e-01 -7.934350e-01  1.203711e+01  # Hw SPC
    277      93    1   0.000000  3.198820e+00  1.532450e-01 -1.283971e+01  # Hw SPC
    278      93    2   0.000000  4.114369e+00 -2.485540e-01 -1.282162e+01  # Ow SPC
    279      93    1   0.000000  4.046500e+00 -1.238384e+00 -1.294664e+01  # Hw SPC
    280      94    1   0.000000 -1.179010e-01 -7.192813e+00  5.215125e+00  # Hw SPC
    281      94    2   0.000000  8.471000e-03 -7.287797e+00  6.202550e+00  # Ow SPC
    282      94    1   0.000000  9.724260e-01 -7.466644e+00  6.399535e+00  # Hw SPC
    283      95    1   0.000000 -9.512163e+00 -1.181522e+01  1.296094e+01  # Hw SPC
    284      95    2   0.000000 -9.277870e+00 -1.086725e+01  1.274541e+01  # Ow SPC
    285      95    1   0.000000 -8.300111e+00 -1.072274e+01  1.289741e+01  # Hw SPC
    286      96    1   0.000000  4.479671e+00 -2.533224e+00  3.678153e+00  # Hw SPC
    287      96    2   0.000000  4.139650e+00 -3.469798e+00  3.763089e+00  # Ow SPC
    288      96    1   0.000000  4.785667e+00 -4.011442e+00  4.300940e+00  # Hw SPC
    289      97    1   0.000000  4.232113e+00 -8.687317e+00  1.295000e+01  # Hw SPC
    290      97    2   0.000000  5.115390e+00 -8.218466e+00  1.294896e+01  # Ow SPC
    291      97    1   0.000000  4.967757e+00 -7.229425e+00  1.294812e+01  # Hw SPC
    292      98    1   0.000000  3.134117e+00 -4.153057e+00 -9.471896e+00  # Hw SPC
    293      98    2   0.000000  3.427143e+00 -4.741975e+00 -8.718696e+00  # Ow SPC
    294      98    1   0.000000  2.683587e+00 -4.830191e+00 -8.055867e+00  # Hw SPC
    295      99    1   0.000000 -1.264768e+01  4.109902e+00 -1.016785e+01  # Hw SPC
    296      99    2   0.000000 -1.292029e+01  5.037925e+00 -1.042173e+01  # Ow SPC
    297      99    1   0.000000 -1.295125e+01  5.115374e+00 -1.141825e+01  # Hw SPC
    298     100    1   0.000000 -5.583440e+00 -9.738300e-02 -1.295004e+01  # Hw SPC
    299     100    2   0.000000 -5.432831e+00  6.609650e-01 -1.231583e+01  # Ow SPC
    300     100    1   0.000000 -4.758180e+00  3.917240e-01 -1.162855e+01  # Hw SPC
    301     101    1   0.000000 -4.662154e+00 -9.560173e+00 -4.449766e+00  # Hw SPC
    302     101    2   0.000000 -4.026342e+00 -8.840469e+00 -4.170896e+00  # Ow SPC
    303     101    1   0.000000 -3.194810e+00 -8.897866e+00 -4.723398e+00  # Hw SPC
    304     102    1   0.000000 -1.098662e+01  4.828741e+00 -1.295064e+01  # Hw SPC
    305     102    2   0.000000 -1.029126e+01  5.471652e+00 -1.262948e+01  # Ow SPC
    306     102    1   0.000000 -1.063564e+01  5.962922e+00 -1.182945e+01  # Hw SPC
    307     103    1   0.000000 -3.054959e+00  1.434375e+00  9.987507e+00  # Hw SPC
    308     103    2   0.000000 -2.174734e+00  1.460644e+00  1.046134e+01  # Ow SPC
    309     103    1   0.000000 -1.831320e+00  5.287950e-01  1.057849e+01  # Hw SPC
    310     104    1   0.000000 -2.025797e+00  1.202025e+01 -9.231567e+00  # Hw SPC
    311     104    2   0.000000 -2.075106e+00  1.118236e+01 -8.687960e+00  # Ow SPC
    312     104    1   0.000000 -3.006866e+00  1.082046e+01 -8.717142e+00  # Hw SPC
    313     105    1   0.000000  4.249180e+00  1.273882e+01  1.080969e+01  # Hw SPC
    314     105    2   0.000000  3.284416e+00  1.295017e+01  1.065298e+01  # Ow SPC
    315     105    1   0.000000  2.797078e+00  1.211460e+01  1.039936e+01  # Hw SPC
    316     106    1   0.000000  1.295007e+01 -1.289718e+01 -3.160696e+00  # Hw SPC
    317     106    2   0.000000  1.247512e+01 -1.203799e+01 -2.970422e+00  # Ow SPC
    318     106    1   0.000000  1.290424e+01 -1.129810e+01 -3.488517e+00  # Hw SPC
    319     107    1   0.000000  4.338635e+00  1.025024e+01  1.102997e+01  # Hw SPC
    320     107    2   0.000000  4.880040e+00  9.646816e+00  1.161542e+01  # Ow SPC
    321     107    1   0.000000  5.848077e+00  9.735293e+00  1.138074e+01  # Hw SPC
    322     108    1   0.000000  9.514085e+00 -9.091894e+00 -5.038683e+00  # Hw SPC
    323     108    2   0.000000  1.042978e+01 -9.493337e+00 -5.019895e+00  # Ow SPC
    324     108    1   0.000000  1.035609e+01 -1.048933e+01 -4.969223e+00  # Hw SPC
    325     109    1   0.000000 -9.841553e+00  2.021419e+00 -9.070150e-01  # Hw SPC
    326     109    2   0.000000 -8.875731e+00  1.763997e+00 -8.766350e-01  # Ow SPC
    327     109    1   0.000000 -8.318594e+00  2.578565e+00 -7.151510e-01  # Hw SPC
    328     110    1   0.000000  1.200961e+01  9.586269e+00  3.710440e-01  # Hw SPC
    329     110    2   0.000000  1.286270e+01  1.003822e+01  1.103150e-01  # Ow SPC
    330     110    1   0.000000  1.294560e+01  1.090397e+01  6.038760e-01  # Hw SPC
    331     111    1   0.000000 -7.925149e+00  8.795598e+00  7.630969e+00  # Hw SPC
    332     111    2   0.000000 -8.160479e+00  7.829200e+00  7.527554e+00  # Ow SPC
    333     111    1   0.000000 -7.344673e+00  7.313688e+00  7.265431e+00  # Hw SPC
    334     112    1   0.000000  4.782161e+00  4.317255e+00 -9.247300e+00  # Hw SPC
    335     112    2   0.000000  5.557475e+00  4.702111e+00 -8.746526e+00  # Ow SPC
    336     112    1   0.000000  5.425595e+00  5.686923e+00 -8.633599e+00  # Hw SPC
    337     113    1   0.000000  4.496363e+00 -3.165066e+00  9.862180e+00  # Hw SPC
    338     113    2   0.000000  3.940229e+00 -2.795072e+00  1.060637e+01  # Ow SPC
    339     113    1   0.000000  3.426491e+00 -2.003049e+00  1.027656e+01  # Hw SPC
    340     114    1   0.000000 -1.173973e+01 -9.898008e+00  7.385421e+00  # Hw SPC
    341     114    2   0.000000 -1.196033e+01 -1.080873e+01  7.734586e+00  # Ow SPC
    342     114    1   0.000000 -1.295161e+01 -1.093983e+01  7.720943e+00  # Hw SPC
    343     115    1   0.000000  9.739145e+00  1.393409e+00  8.879703e+00  # Hw SPC
    344     115    2   0.000000  1.023742e+01  1.954536e+00  9.540656e+00  # Ow SPC
    345     115    1   0.000000  9.942308e+00  2.906521e+00  9.459221e+00  # Hw SPC
    346     116    1   0.000000  3.241629e+00 -1.063589e+01  9.010387e+00  # Hw SPC
    347     116    2   0.000000  2.915857e+00 -1.124691e+01  9.731862e+00  # Ow SPC
    348     116    1   0.000000  2.640193e+00 -1.212008e+01  9.329888e+00  # Hw SPC
    349     117    1   0.000000 -3.115079e+00 -1.104960e+01 -2.112563e+00  # Hw SPC
    350     117    2   0.000000 -3.484933e+00 -1.013389e+01 -1.955476e+00  # Ow SPC
    351     117    1   0.000000 -4.474539e+00 -1.019215e+01 -1.824004e+00  # Hw SPC
    352     118    1   0.000000  1.061433e+01  7.063980e-01 -1.295336e+01  # Hw SPC
    353     118    2   0.000000  9.641074e+00  9.312090e-01 -1.290610e+01  # Ow SPC